# vtk DataFile Version 2.0
Unstructured Grid Example
ASCII
DATASET UNSTRUCTURED_GRID
POINTS 729 float
1.0 0.0 0.0
0.9997648596763611 0.021684441715478897 0.0
0.9962400197982788 0.08663582056760788 0.0
0.9810137152671814 0.1939384937286377 0.0
0.9404045939445496 0.34005773067474365 0.0
0.8565995097160339 0.515981912612915 0.0
0.7104202508926392 0.7037777304649353 0.0
0.4865838587284088 0.873633861541748 0.0
0.18186545372009277 0.9833233952522278 0.0
1.125 0.0 0.0
1.1247354745864868 0.024394996464252472 0.0
1.12076997756958 0.09746529906988144 0.0
1.1036404371261597 0.2181808054447174 0.0
1.0579551458358765 0.3825649619102478 0.0
0.9636744260787964 0.580479621887207 0.0
0.7992227673530579 0.7917499542236328 0.0
0.5474068522453308 0.9828380942344666 0.0
0.20459866523742676 1.106238842010498 0.0
1.25 0.0 0.0
1.2497060298919678 0.027105554938316345 0.0
1.245300054550171 0.1082947850227356 0.0
1.2262670993804932 0.24242311716079712 0.0
1.1755057573318481 0.42507216334342957 0.0
1.0707494020462036 0.6449773907661438 0.0
0.8880252838134766 0.8797221779823303 0.0
0.6082298159599304 1.092042326927185 0.0
0.22733181715011597 1.2291542291641235 0.0
1.375 0.0 0.0
1.3746767044067383 0.029816120862960815 0.0
1.3698300123214722 0.11912426352500916 0.0
1.3488938808441162 0.26666542887687683 0.0
1.2930563688278198 0.46757936477661133 0.0
1.1778243780136108 0.7094751596450806 0.0
0.97682785987854 0.9676944017410278 0.0
0.66905277967453 1.2012465000152588 0.0
0.25006502866744995 1.352069616317749 0.0
1.5 0.0 0.0
1.4996472597122192 0.03252667188644409 0.0
1.4943599700927734 0.12995374202728271 0.0
1.4715205430984497 0.29090774059295654 0.0
1.410606861114502 0.5100865960121155 0.0
1.2848992347717285 0.7739728689193726 0.0
1.0656304359436035 1.0556665658950806 0.0
0.7298758029937744 1.310450792312622 0.0
0.27279821038246155 1.474985122680664 0.0
1.625 0.0 0.0
1.6246179342269897 0.03523719310760498 0.0
1.6188900470733643 0.1407831907272339 0.0
1.5941473245620728 0.31515005230903625 0.0
1.5281574726104736 0.5525938272476196 0.0
1.3919742107391357 0.8384705781936646 0.0
1.1544328927993774 1.1436388492584229 0.0
0.790698766708374 1.4196550846099854 0.0
0.29553139209747314 1.5979005098342896 0.0
1.75 0.0 0.0
1.7495884895324707 0.037947773933410645 0.0
1.7434200048446655 0.15161269903182983 0.0
1.7167739868164062 0.33939236402511597 0.0
1.6457080841064453 0.595100998878479 0.0
1.499049186706543 0.9029683470726013 0.0
1.243235468864441 1.2316110134124756 0.0
0.8515217304229736 1.528859257698059 0.0
0.31826457381248474 1.720815896987915 0.0
1.875 0.0 0.0
1.8745591640472412 0.04065835475921631 0.0
1.8679500818252563 0.162442147731781 0.0
1.8394007682800293 0.36363470554351807 0.0
1.7632585763931274 0.6376082301139832 0.0
1.6061240434646606 0.9674661159515381 0.0
1.3320379257202148 1.3195832967758179 0.0
0.912344753742218 1.6380634307861328 0.0
0.34099775552749634 1.84373140335083 0.0
2.0 0.0 0.0
1.9995297193527222 0.0433688759803772 0.0
1.9924800395965576 0.17327165603637695 0.0
1.9620274305343628 0.3878769874572754 0.0
1.8808091878890991 0.6801154613494873 0.0
1.7131990194320679 1.03196382522583 0.0
1.4208405017852783 1.4075554609298706 0.0
0.9731677174568176 1.747267723083496 0.0
0.36373093724250793 1.9666467905044556 0.0
1.0 0.0 0.0625
0.9997648596763611 0.021684441715478897 0.0625
0.9962400197982788 0.08663582056760788 0.0625
0.9810137152671814 0.1939384937286377 0.0625
0.9404045939445496 0.34005773067474365 0.0625
0.8565995097160339 0.515981912612915 0.0625
0.7104202508926392 0.7037777304649353 0.0625
0.4865838587284088 0.873633861541748 0.0625
0.18186545372009277 0.9833233952522278 0.0625
1.125 0.0 0.0625
1.1247354745864868 0.024394996464252472 0.0625
1.12076997756958 0.09746529906988144 0.0625
1.1036404371261597 0.2181808054447174 0.0625
1.0579551458358765 0.3825649619102478 0.0625
0.9636744260787964 0.580479621887207 0.0625
0.7992227673530579 0.7917499542236328 0.0625
0.5474068522453308 0.9828380942344666 0.0625
0.20459866523742676 1.106238842010498 0.0625
1.25 0.0 0.0625
1.2497060298919678 0.027105554938316345 0.0625
1.245300054550171 0.1082947850227356 0.0625
1.2262670993804932 0.24242311716079712 0.0625
1.1755057573318481 0.42507216334342957 0.0625
1.0707494020462036 0.6449773907661438 0.0625
0.8880252838134766 0.8797221779823303 0.0625
0.6082298159599304 1.092042326927185 0.0625
0.22733181715011597 1.2291542291641235 0.0625
1.375 0.0 0.0625
1.3746767044067383 0.029816120862960815 0.0625
1.3698300123214722 0.11912426352500916 0.0625
1.3488938808441162 0.26666542887687683 0.0625
1.2930563688278198 0.46757936477661133 0.0625
1.1778243780136108 0.7094751596450806 0.0625
0.97682785987854 0.9676944017410278 0.0625
0.66905277967453 1.2012465000152588 0.0625
0.25006502866744995 1.352069616317749 0.0625
1.5 0.0 0.0625
1.4996472597122192 0.03252667188644409 0.0625
1.4943599700927734 0.12995374202728271 0.0625
1.4715205430984497 0.29090774059295654 0.0625
1.410606861114502 0.5100865960121155 0.0625
1.2848992347717285 0.7739728689193726 0.0625
1.0656304359436035 1.0556665658950806 0.0625
0.7298758029937744 1.310450792312622 0.0625
0.27279821038246155 1.474985122680664 0.0625
1.625 0.0 0.0625
1.6246179342269897 0.03523719310760498 0.0625
1.6188900470733643 0.1407831907272339 0.0625
1.5941473245620728 0.31515005230903625 0.0625
1.5281574726104736 0.5525938272476196 0.0625
1.3919742107391357 0.8384705781936646 0.0625
1.1544328927993774 1.1436388492584229 0.0625
0.790698766708374 1.4196550846099854 0.0625
0.29553139209747314 1.5979005098342896 0.0625
1.75 0.0 0.0625
1.7495884895324707 0.037947773933410645 0.0625
1.7434200048446655 0.15161269903182983 0.0625
1.7167739868164062 0.33939236402511597 0.0625
1.6457080841064453 0.595100998878479 0.0625
1.499049186706543 0.9029683470726013 0.0625
1.243235468864441 1.2316110134124756 0.0625
0.8515217304229736 1.528859257698059 0.0625
0.31826457381248474 1.720815896987915 0.0625
1.875 0.0 0.0625
1.8745591640472412 0.04065835475921631 0.0625
1.8679500818252563 0.162442147731781 0.0625
1.8394007682800293 0.36363470554351807 0.0625
1.7632585763931274 0.6376082301139832 0.0625
1.6061240434646606 0.9674661159515381 0.0625
1.3320379257202148 1.3195832967758179 0.0625
0.912344753742218 1.6380634307861328 0.0625
0.34099775552749634 1.84373140335083 0.0625
2.0 0.0 0.0625
1.9995297193527222 0.0433688759803772 0.0625
1.9924800395965576 0.17327165603637695 0.0625
1.9620274305343628 0.3878769874572754 0.0625
1.8808091878890991 0.6801154613494873 0.0625
1.7131990194320679 1.03196382522583 0.0625
1.4208405017852783 1.4075554609298706 0.0625
0.9731677174568176 1.747267723083496 0.0625
0.36373093724250793 1.9666467905044556 0.0625
1.0 0.0 0.125
0.9997648596763611 0.021684441715478897 0.125
0.9962400197982788 0.08663582056760788 0.125
0.9810137152671814 0.1939384937286377 0.125
0.9404045939445496 0.34005773067474365 0.125
0.8565995097160339 0.515981912612915 0.125
0.7104202508926392 0.7037777304649353 0.125
0.4865838587284088 0.873633861541748 0.125
0.18186545372009277 0.9833233952522278 0.125
1.125 0.0 0.125
1.1247354745864868 0.024394996464252472 0.125
1.12076997756958 0.09746529906988144 0.125
1.1036404371261597 0.2181808054447174 0.125
1.0579551458358765 0.3825649619102478 0.125
0.9636744260787964 0.580479621887207 0.125
0.7992227673530579 0.7917499542236328 0.125
0.5474068522453308 0.9828380942344666 0.125
0.20459866523742676 1.106238842010498 0.125
1.25 0.0 0.125
1.2497060298919678 0.027105554938316345 0.125
1.245300054550171 0.1082947850227356 0.125
1.2262670993804932 0.24242311716079712 0.125
1.1755057573318481 0.42507216334342957 0.125
1.0707494020462036 0.6449773907661438 0.125
0.8880252838134766 0.8797221779823303 0.125
0.6082298159599304 1.092042326927185 0.125
0.22733181715011597 1.2291542291641235 0.125
1.375 0.0 0.125
1.3746767044067383 0.029816120862960815 0.125
1.3698300123214722 0.11912426352500916 0.125
1.3488938808441162 0.26666542887687683 0.125
1.2930563688278198 0.46757936477661133 0.125
1.1778243780136108 0.7094751596450806 0.125
0.97682785987854 0.9676944017410278 0.125
0.66905277967453 1.2012465000152588 0.125
0.25006502866744995 1.352069616317749 0.125
1.5 0.0 0.125
1.4996472597122192 0.03252667188644409 0.125
1.4943599700927734 0.12995374202728271 0.125
1.4715205430984497 0.29090774059295654 0.125
1.410606861114502 0.5100865960121155 0.125
1.2848992347717285 0.7739728689193726 0.125
1.0656304359436035 1.0556665658950806 0.125
0.7298758029937744 1.310450792312622 0.125
0.27279821038246155 1.474985122680664 0.125
1.625 0.0 0.125
1.6246179342269897 0.03523719310760498 0.125
1.6188900470733643 0.1407831907272339 0.125
1.5941473245620728 0.31515005230903625 0.125
1.5281574726104736 0.5525938272476196 0.125
1.3919742107391357 0.8384705781936646 0.125
1.1544328927993774 1.1436388492584229 0.125
0.790698766708374 1.4196550846099854 0.125
0.29553139209747314 1.5979005098342896 0.125
1.75 0.0 0.125
1.7495884895324707 0.037947773933410645 0.125
1.7434200048446655 0.15161269903182983 0.125
1.7167739868164062 0.33939236402511597 0.125
1.6457080841064453 0.595100998878479 0.125
1.499049186706543 0.9029683470726013 0.125
1.243235468864441 1.2316110134124756 0.125
0.8515217304229736 1.528859257698059 0.125
0.31826457381248474 1.720815896987915 0.125
1.875 0.0 0.125
1.8745591640472412 0.04065835475921631 0.125
1.8679500818252563 0.162442147731781 0.125
1.8394007682800293 0.36363470554351807 0.125
1.7632585763931274 0.6376082301139832 0.125
1.6061240434646606 0.9674661159515381 0.125
1.3320379257202148 1.3195832967758179 0.125
0.912344753742218 1.6380634307861328 0.125
0.34099775552749634 1.84373140335083 0.125
2.0 0.0 0.125
1.9995297193527222 0.0433688759803772 0.125
1.9924800395965576 0.17327165603637695 0.125
1.9620274305343628 0.3878769874572754 0.125
1.8808091878890991 0.6801154613494873 0.125
1.7131990194320679 1.03196382522583 0.125
1.4208405017852783 1.4075554609298706 0.125
0.9731677174568176 1.747267723083496 0.125
0.36373093724250793 1.9666467905044556 0.125
1.0 0.0 0.1875
[...]
POINT_DATA 729
TENSORS s float
0.0 0.0 0.0
0.0 0.0 0.0
0.0 0.0 0.0

0.09375 0.0 0.09375
0.0 0.0 0.0
0.09375 0.0 0.0087890625

0.1875 0.0 0.1875
0.0 0.0 0.0
0.1875 0.0 0.03515625

0.28125 0.0 0.28125
0.0 0.0 0.0
0.28125 0.0 0.0791015625

0.375 0.0 0.375
0.0 0.0 0.0
0.375 0.0 0.140625

0.46875 0.0 0.46875
0.0 0.0 0.0
0.46875 0.0 0.2197265625

0.5625 0.0 0.5625
0.0 0.0 0.0
0.5625 0.0 0.31640625

0.65625 0.0 0.65625
0.0 0.0 0.0
0.65625 0.0 0.4306640625

0.75 0.0 0.75
0.0 0.0 0.0
0.75 0.0 0.5625

0.0 0.015625 0.125
0.015625 0.125 0.0
0.125 0.0 0.0

0.09375 0.015625 0.21875
0.015625 0.125 0.0
0.21875 0.0 0.0087890625

0.1875 0.015625 0.3125
0.015625 0.125 0.0
0.3125 0.0 0.03515625

0.28125 0.015625 0.40625
0.015625 0.125 0.0
0.40625 0.0 0.0791015625

0.375 0.015625 0.5
0.015625 0.125 0.0
0.5 0.0 0.140625

0.46875 0.015625 0.59375
0.015625 0.125 0.0
0.59375 0.0 0.2197265625

0.5625 0.015625 0.6875
0.015625 0.125 0.0
0.6875 0.0 0.31640625

0.65625 0.015625 0.78125
0.015625 0.125 0.0
0.78125 0.0 0.4306640625

0.75 0.015625 0.875
0.015625 0.125 0.0
0.875 0.0 0.5625

0.0 0.0625 0.25
0.0625 0.25 0.0
0.25 0.0 0.0

0.09375 0.0625 0.34375
0.0625 0.25 0.0
0.34375 0.0 0.0087890625

0.1875 0.0625 0.4375
0.0625 0.25 0.0
0.4375 0.0 0.03515625

0.28125 0.0625 0.53125
0.0625 0.25 0.0
0.53125 0.0 0.0791015625

0.375 0.0625 0.625
0.0625 0.25 0.0
0.625 0.0 0.140625

0.46875 0.0625 0.71875
0.0625 0.25 0.0
0.71875 0.0 0.2197265625

0.5625 0.0625 0.8125
0.0625 0.25 0.0
0.8125 0.0 0.31640625

0.65625 0.0625 0.90625
0.0625 0.25 0.0
0.90625 0.0 0.4306640625

0.75 0.0625 1.0
0.0625 0.25 0.0
1.0 0.0 0.5625

0.0 0.140625 0.375
0.140625 0.375 0.0
0.375 0.0 0.0

0.09375 0.140625 0.46875
0.140625 0.375 0.0
0.46875 0.0 0.0087890625

0.1875 0.140625 0.5625
0.140625 0.375 0.0
0.5625 0.0 0.03515625

0.28125 0.140625 0.65625
0.140625 0.375 0.0
0.65625 0.0 0.0791015625

0.375 0.140625 0.75
0.140625 0.375 0.0
0.75 0.0 0.140625

0.46875 0.140625 0.84375
0.140625 0.375 0.0
0.84375 0.0 0.2197265625

0.5625 0.140625 0.9375
0.140625 0.375 0.0
0.9375 0.0 0.31640625

0.65625 0.140625 1.03125
0.140625 0.375 0.0
1.03125 0.0 0.4306640625

0.75 0.140625 1.125
0.140625 0.375 0.0
1.125 0.0 0.5625

0.0 0.25 0.5
0.25 0.5 0.0
0.5 0.0 0.0

0.09375 0.25 0.59375
0.25 0.5 0.0
0.59375 0.0 0.0087890625

0.1875 0.25 0.6875
0.25 0.5 0.0
0.6875 0.0 0.03515625

0.28125 0.25 0.78125
0.25 0.5 0.0
0.78125 0.0 0.0791015625

0.375 0.25 0.875
0.25 0.5 0.0
0.875 0.0 0.140625

0.46875 0.25 0.96875
0.25 0.5 0.0
0.96875 0.0 0.2197265625

0.5625 0.25 1.0625
0.25 0.5 0.0
1.0625 0.0 0.31640625

0.65625 0.25 1.15625
0.25 0.5 0.0
1.15625 0.0 0.4306640625

0.75 0.25 1.25
0.25 0.5 0.0
1.25 0.0 0.5625

0.0 0.390625 0.625
0.390625 0.625 0.0
0.625 0.0 0.0

0.09375 0.390625 0.71875
0.390625 0.625 0.0
0.71875 0.0 0.0087890625

0.1875 0.390625 0.8125
0.390625 0.625 0.0
0.8125 0.0 0.03515625

0.28125 0.390625 0.90625
0.390625 0.625 0.0
0.90625 0.0 0.0791015625

0.375 0.390625 1.0
0.390625 0.625 0.0
1.0 0.0 0.140625

0.46875 0.390625 1.09375
0.390625 0.625 0.0
1.09375 0.0 0.2197265625

0.5625 0.390625 1.1875
0.390625 0.625 0.0
1.1875 0.0 0.31640625

0.65625 0.390625 1.28125
0.390625 0.625 0.0
1.28125 0.0 0.4306640625

0.75 0.390625 1.375
0.390625 0.625 0.0
1.375 0.0 0.5625

0.0 0.5625 0.75
0.5625 0.75 0.0
0.75 0.0 0.0

0.09375 0.5625 0.84375
0.5625 0.75 0.0
0.84375 0.0 0.0087890625

0.1875 0.5625 0.9375
0.5625 0.75 0.0
0.9375 0.0 0.03515625

0.28125 0.5625 1.03125
0.5625 0.75 0.0
1.03125 0.0 0.0791015625

0.375 0.5625 1.125
0.5625 0.75 0.0
1.125 0.0 0.140625

0.46875 0.5625 1.21875
0.5625 0.75 0.0
1.21875 0.0 0.2197265625

0.5625 0.5625 1.3125
0.5625 0.75 0.0
1.3125 0.0 0.31640625

0.65625 0.5625 1.40625
0.5625 0.75 0.0
1.40625 0.0 0.4306640625

0.75 0.5625 1.5
0.5625 0.75 0.0
1.5 0.0 0.5625

0.0 0.765625 0.875
0.765625 0.875 0.0
0.875 0.0 0.0

0.09375 0.765625 0.96875
0.765625 0.875 0.0
0.96875 0.0 0.0087890625

0.1875 0.765625 1.0625
0.765625 0.875 0.0
1.0625 0.0 0.03515625

0.28125 0.765625 1.15625
0.765625 0.875 0.0
1.15625 0.0 0.0791015625

0.375 0.765625 1.25
0.765625 0.875 0.0
1.25 0.0 0.140625

0.46875 0.765625 1.34375
0.765625 0.875 0.0
1.34375 0.0 0.2197265625

0.5625 0.765625 1.4375
0.765625 0.875 0.0
1.4375 0.0 0.31640625

0.65625 0.765625 1.53125
0.765625 0.875 0.0
1.53125 0.0 0.4306640625

0.75 0.765625 1.625
0.765625 0.875 0.0
1.625 0.0 0.5625

0.0 1.0 1.0
1.0 1.0 0.0
1.0 0.0 0.0

0.09375 1.0 1.09375
1.0 1.0 0.0
1.09375 0.0 0.0087890625

0.1875 1.0 1.1875
1.0 1.0 0.0
1.1875 0.0 0.03515625

0.28125 1.0 1.28125
1.0 1.0 0.0
1.28125 0.0 0.0791015625

0.375 1.0 1.375
1.0 1.0 0.0
1.375 0.0 0.140625

0.46875 1.0 1.46875
1.0 1.0 0.0
1.46875 0.0 0.2197265625

0.5625 1.0 1.5625
1.0 1.0 0.0
1.5625 0.0 0.31640625

0.65625 1.0 1.65625
1.0 1.0 0.0
1.65625 0.0 0.4306640625

0.75 1.0 1.75
1.0 1.0 0.0
1.75 0.0 0.5625

0.0625 0.0 0.0
0.0 0.0625 0.0625
0.0 0.0625 0.0

0.15625 0.0 0.09375
0.0 0.0625 0.0625
0.09375 0.0625 0.0087890625

0.25 0.0 0.1875
0.0 0.0625 0.0625
0.1875 0.0625 0.03515625

0.34375 0.0 0.28125
0.0 0.0625 0.0625
0.28125 0.0625 0.0791015625

0.4375 0.0 0.375
0.0 0.0625 0.0625
0.375 0.0625 0.140625

0.53125 0.0 0.46875
0.0 0.0625 0.0625
0.46875 0.0625 0.2197265625

0.625 0.0 0.5625
0.0 0.0625 0.0625
0.5625 0.0625 0.31640625

0.71875 0.0 0.65625
0.0 0.0625 0.0625
0.65625 0.0625 0.4306640625

0.8125 0.0 0.75
0.0 0.0625 0.0625
0.75 0.0625 0.5625

0.0625 0.015625 0.125
0.015625 0.1875 0.0625
0.125 0.0625 0.0

0.15625 0.015625 0.21875
0.015625 0.1875 0.0625
0.21875 0.0625 0.0087890625

0.25 0.015625 0.3125
0.015625 0.1875 0.0625
0.3125 0.0625 0.03515625

0.34375 0.015625 0.40625
0.015625 0.1875 0.0625
0.40625 0.0625 0.0791015625

0.4375 0.015625 0.5
0.015625 0.1875 0.0625
0.5 0.0625 0.140625

0.53125 0.015625 0.59375
0.015625 0.1875 0.0625
0.59375 0.0625 0.2197265625

0.625 0.015625 0.6875
0.015625 0.1875 0.0625
0.6875 0.0625 0.31640625

0.71875 0.015625 0.78125
0.015625 0.1875 0.0625
0.78125 0.0625 0.4306640625

0.8125 0.015625 0.875
0.015625 0.1875 0.0625
0.875 0.0625 0.5625

0.0625 0.0625 0.25
0.0625 0.3125 0.0625
0.25 0.0625 0.0

0.15625 0.0625 0.34375
0.0625 0.3125 0.0625
0.34375 0.0625 0.0087890625

0.25 0.0625 0.4375
0.0625 0.3125 0.0625
0.4375 0.0625 0.03515625

0.34375 0.0625 0.53125
0.0625 0.3125 0.0625
0.53125 0.0625 0.0791015625

0.4375 0.0625 0.625
0.0625 0.3125 0.0625
0.625 0.0625 0.140625

0.53125 0.0625 0.71875
0.0625 0.3125 0.0625
0.71875 0.0625 0.2197265625

0.625 0.0625 0.8125
0.0625 0.3125 0.0625
0.8125 0.0625 0.31640625

0.71875 0.0625 0.90625
0.0625 0.3125 0.0625
0.90625 0.0625 0.4306640625

0.8125 0.0625 1.0
0.0625 0.3125 0.0625
1.0 0.0625 0.5625

0.0625 0.140625 0.375
0.140625 0.4375 0.0625
0.375 0.0625 0.0

0.15625 0.140625 0.46875
0.140625 0.4375 0.0625
0.46875 0.0625 0.0087890625

0.25 0.140625 0.5625
0.140625 0.4375 0.0625
0.5625 0.0625 0.03515625

0.34375 0.140625 0.65625
0.140625 0.4375 0.0625
0.65625 0.0625 0.0791015625

0.4375 0.140625 0.75
0.140625 0.4375 0.0625
0.75 0.0625 0.140625

0.53125 0.140625 0.84375
0.140625 0.4375 0.0625
0.84375 0.0625 0.2197265625

0.625 0.140625 0.9375
0.140625 0.4375 0.0625
0.9375 0.0625 0.31640625

0.71875 0.140625 1.03125
0.140625 0.4375 0.0625
1.03125 0.0625 0.4306640625

0.8125 0.140625 1.125
0.140625 0.4375 0.0625
1.125 0.0625 0.5625

0.0625 0.25 0.5
0.25 0.5625 0.0625
0.5 0.0625 0.0

0.15625 0.25 0.59375
0.25 0.5625 0.0625
0.59375 0.0625 0.0087890625

0.25 0.25 0.6875
0.25 0.5625 0.0625
0.6875 0.0625 0.03515625

0.34375 0.25 0.78125
0.25 0.5625 0.0625
0.78125 0.0625 0.0791015625

0.4375 0.25 0.875
0.25 0.5625 0.0625
0.875 0.0625 0.140625

0.53125 0.25 0.96875
0.25 0.5625 0.0625
0.96875 0.0625 0.2197265625

0.625 0.25 1.0625
0.25 0.5625 0.0625
1.0625 0.0625 0.31640625

0.71875 0.25 1.15625
0.25 0.5625 0.0625
1.15625 0.0625 0.4306640625

0.8125 0.25 1.25
0.25 0.5625 0.0625
1.25 0.0625 0.5625

0.0625 0.390625 0.625
0.390625 0.6875 0.0625
0.625 0.0625 0.0

0.15625 0.390625 0.71875
0.390625 0.6875 0.0625
0.71875 0.0625 0.0087890625

0.25 0.390625 0.8125
0.390625 0.6875 0.0625
0.8125 0.0625 0.03515625

0.34375 0.390625 0.90625
0.390625 0.6875 0.0625
0.90625 0.0625 0.0791015625

0.4375 0.390625 1.0
0.390625 0.6875 0.0625
1.0 0.0625 0.140625

0.53125 0.390625 1.09375
0.390625 0.6875 0.0625
1.09375 0.0625 0.2197265625

0.625 0.390625 1.1875
0.390625 0.6875 0.0625
1.1875 0.0625 0.31640625

0.71875 0.390625 1.28125
0.390625 0.6875 0.0625
1.28125 0.0625 0.4306640625

0.8125 0.390625 1.375
0.390625 0.6875 0.0625
1.375 0.0625 0.5625

0.0625 0.5625 0.75
0.5625 0.8125 0.0625
0.75 0.0625 0.0

0.15625 0.5625 0.84375
0.5625 0.8125 0.0625
0.84375 0.0625 0.0087890625

0.25 0.5625 0.9375
0.5625 0.8125 0.0625
0.9375 0.0625 0.03515625

0.34375 0.5625 1.03125
0.5625 0.8125 0.0625
1.03125 0.0625 0.0791015625

0.4375 0.5625 1.125
0.5625 0.8125 0.0625
1.125 0.0625 0.140625

0.53125 0.5625 1.21875
0.5625 0.8125 0.0625
1.21875 0.0625 0.2197265625

0.625 0.5625 1.3125
0.5625 0.8125 0.0625
1.3125 0.0625 0.31640625

0.71875 0.5625 1.40625
0.5625 0.8125 0.0625
1.40625 0.0625 0.4306640625

0.8125 0.5625 1.5
0.5625 0.8125 0.0625
1.5 0.0625 0.5625

0.0625 0.765625 0.875
0.765625 0.9375 0.0625
0.875 0.0625 0.0

0.15625 0.765625 0.96875
0.765625 0.9375 0.0625
0.96875 0.0625 0.0087890625

0.25 0.765625 1.0625
0.765625 0.9375 0.0625
1.0625 0.0625 0.03515625

0.34375 0.765625 1.15625
0.765625 0.9375 0.0625
1.15625 0.0625 0.0791015625

0.4375 0.765625 1.25
0.765625 0.9375 0.0625
1.25 0.0625 0.140625

0.53125 0.765625 1.34375
0.765625 0.9375 0.0625
1.34375 0.0625 0.2197265625

0.625 0.765625 1.4375
0.765625 0.9375 0.0625
1.4375 0.0625 0.31640625

0.71875 0.765625 1.53125
0.765625 0.9375 0.0625
1.53125 0.0625 0.4306640625

0.8125 0.765625 1.625
0.765625 0.9375 0.0625
1.625 0.0625 0.5625

0.0625 1.0 1.0
1.0 1.0625 0.0625
1.0 0.0625 0.0

0.15625 1.0 1.09375
1.0 1.0625 0.0625
1.09375 0.0625 0.0087890625

0.25 1.0 1.1875
1.0 1.0625 0.0625
1.1875 0.0625 0.03515625

0.34375 1.0 1.28125
1.0 1.0625 0.0625
1.28125 0.0625 0.0791015625

0.4375 1.0 1.375
1.0 1.0625 0.0625
1.375 0.0625 0.140625

0.53125 1.0 1.46875
1.0 1.0625 0.0625
1.46875 0.0625 0.2197265625

0.625 1.0 1.5625
1.0 1.0625 0.0625
1.5625 0.0625 0.31640625

0.71875 1.0 1.65625
1.0 1.0625 0.0625
1.65625 0.0625 0.4306640625

0.8125 1.0 1.75
1.0 1.0625 0.0625
1.75 0.0625 0.5625

0.125 0.0 0.0
0.0 0.125 0.125
0.0 0.125 0.0

0.21875 0.0 0.09375
0.0 0.125 0.125
0.09375 0.125 0.0087890625

0.3125 0.0 0.1875
0.0 0.125 0.125
0.1875 0.125 0.03515625

0.40625 0.0 0.28125
0.0 0.125 0.125
0.28125 0.125 0.0791015625

0.5 0.0 0.375
0.0 0.125 0.125
0.375 0.125 0.140625

0.59375 0.0 0.46875
0.0 0.125 0.125
0.46875 0.125 0.2197265625

0.6875 0.0 0.5625
0.0 0.125 0.125
0.5625 0.125 0.31640625

0.78125 0.0 0.65625
0.0 0.125 0.125
0.65625 0.125 0.4306640625

0.875 0.0 0.75
0.0 0.125 0.125
0.75 0.125 0.5625

0.125 0.015625 0.125
0.015625 0.25 0.125
0.125 0.125 0.0

0.21875 0.015625 0.21875
0.015625 0.25 0.125
0.21875 0.125 0.0087890625

0.3125 0.015625 0.3125
0.015625 0.25 0.125
0.3125 0.125 0.03515625

0.40625 0.015625 0.40625
0.015625 0.25 0.125
0.40625 0.125 0.0791015625

0.5 0.015625 0.5
0.015625 0.25 0.125
0.5 0.125 0.140625

0.59375 0.015625 0.59375
0.015625 0.25 0.125
0.59375 0.125 0.2197265625

0.6875 0.015625 0.6875
0.015625 0.25 0.125
0.6875 0.125 0.31640625

0.78125 0.015625 0.78125
0.015625 0.25 0.125
0.78125 0.125 0.4306640625

0.875 0.015625 0.875
0.015625 0.25 0.125
0.875 0.125 0.5625

0.125 0.0625 0.25
0.0625 0.375 0.125
0.25 0.125 0.0

0.21875 0.0625 0.34375
0.0625 0.375 0.125
0.34375 0.125 0.0087890625

0.3125 0.0625 0.4375
0.0625 0.375 0.125
0.4375 0.125 0.03515625

0.40625 0.0625 0.53125
0.0625 0.375 0.125
0.53125 0.125 0.0791015625

0.5 0.0625 0.625
0.0625 0.375 0.125
0.625 0.125 0.140625

0.59375 0.0625 0.71875
0.0625 0.375 0.125
0.71875 0.125 0.2197265625

0.6875 0.0625 0.8125
0.0625 0.375 0.125
0.8125 0.125 0.31640625

0.78125 0.0625 0.90625
0.0625 0.375 0.125
0.90625 0.125 0.4306640625

0.875 0.0625 1.0
0.0625 0.375 0.125
1.0 0.125 0.5625

0.125 0.140625 0.375
0.140625 0.5 0.125
0.375 0.125 0.0

0.21875 0.140625 0.46875
0.140625 0.5 0.125
0.46875 0.125 0.0087890625

0.3125 0.140625 0.5625
0.140625 0.5 0.125
0.5625 0.125 0.03515625

0.40625 0.140625 0.65625
0.140625 0.5 0.125
0.65625 0.125 0.0791015625

0.5 0.140625 0.75
0.140625 0.5 0.125
0.75 0.125 0.140625

0.59375 0.140625 0.84375
0.140625 0.5 0.125
0.84375 0.125 0.2197265625

0.6875 0.140625 0.9375
0.140625 0.5 0.125
0.9375 0.125 0.31640625

0.78125 0.140625 1.03125
0.140625 0.5 0.125
1.03125 0.125 0.4306640625

0.875 0.140625 1.125
0.140625 0.5 0.125
1.125 0.125 0.5625

0.125 0.25 0.5
0.25 0.625 0.125
0.5 0.125 0.0

0.21875 0.25 0.59375
0.25 0.625 0.125
0.59375 0.125 0.0087890625

0.3125 0.25 0.6875
0.25 0.625 0.125
0.6875 0.125 0.03515625

0.40625 0.25 0.78125
0.25 0.625 0.125
0.78125 0.125 0.0791015625

0.5 0.25 0.875
0.25 0.625 0.125
0.875 0.125 0.140625

0.59375 0.25 0.96875
0.25 0.625 0.125
0.96875 0.125 0.2197265625

0.6875 0.25 1.0625
0.25 0.625 0.125
1.0625 0.125 0.31640625

0.78125 0.25 1.15625
0.25 0.625 0.125
1.15625 0.125 0.4306640625

0.875 0.25 1.25
0.25 0.625 0.125
1.25 0.125 0.5625

0.125 0.390625 0.625
0.390625 0.75 0.125
0.625 0.125 0.0

0.21875 0.390625 0.71875
0.390625 0.75 0.125
0.71875 0.125 0.0087890625

0.3125 0.390625 0.8125
0.390625 0.75 0.125
0.8125 0.125 0.03515625

0.40625 0.390625 0.90625
0.390625 0.75 0.125
0.90625 0.125 0.0791015625

0.5 0.390625 1.0
0.390625 0.75 0.125
1.0 0.125 0.140625

0.59375 0.390625 1.09375
0.390625 0.75 0.125
1.09375 0.125 0.2197265625

0.6875 0.390625 1.1875
0.390625 0.75 0.125
1.1875 0.125 0.31640625

0.78125 0.390625 1.28125
0.390625 0.75 0.125
1.28125 0.125 0.4306640625

0.875 0.390625 1.375
0.390625 0.75 0.125
1.375 0.125 0.5625

0.125 0.5625 0.75
0.5625 0.875 0.125
0.75 0.125 0.0

0.21875 0.5625 0.84375
0.5625 0.875 0.125
0.84375 0.125 0.0087890625

0.3125 0.5625 0.9375
0.5625 0.875 0.125
0.9375 0.125 0.03515625

0.40625 0.5625 1.03125
0.5625 0.875 0.125
1.03125 0.125 0.0791015625

0.5 0.5625 1.125
0.5625 0.875 0.125
1.125 0.125 0.140625

0.59375 0.5625 1.21875
0.5625 0.875 0.125
1.21875 0.125 0.2197265625

0.6875 0.5625 1.3125
0.5625 0.875 0.125
1.3125 0.125 0.31640625

0.78125 0.5625 1.40625
0.5625 0.875 0.125
1.40625 0.125 0.4306640625

0.875 0.5625 1.5
0.5625 0.875 0.125
1.5 0.125 0.5625

0.125 0.765625 0.875
0.765625 1.0 0.125
0.875 0.125 0.0

0.21875 0.765625 0.96875
0.765625 1.0 0.125
0.96875 0.125 0.0087890625

0.3125 0.765625 1.0625
0.765625 1.0 0.125
1.0625 0.125 0.03515625

0.40625 0.765625 1.15625
0.765625 1.0 0.125
1.15625 0.125 0.0791015625

0.5 0.765625 1.25
0.765625 1.0 0.125
1.25 0.125 0.140625

0.59375 0.765625 1.34375
0.765625 1.0 0.125
1.34375 0.125 0.2197265625

0.6875 0.765625 1.4375
0.765625 1.0 0.125
1.4375 0.125 0.31640625

0.78125 0.765625 1.53125
0.765625 1.0 0.125
1.53125 0.125 0.4306640625

0.875 0.765625 1.625
0.765625 1.0 0.125
1.625 0.125 0.5625

0.125 1.0 1.0
1.0 1.125 0.125
1.0 0.125 0.0

0.21875 1.0 1.09375
1.0 1.125 0.125
1.09375 0.125 0.0087890625

0.3125 1.0 1.1875
1.0 1.125 0.125
1.1875 0.125 0.03515625

0.40625 1.0 1.28125
1.0 1.125 0.125
1.28125 0.125 0.0791015625

0.5 1.0 1.375
1.0 1.125 0.125
1.375 0.125 0.140625

0.59375 1.0 1.46875
1.0 1.125 0.125
1.46875 0.125 0.2197265625

0.6875 1.0 1.5625
1.0 1.125 0.125
1.5625 0.125 0.31640625

0.78125 1.0 1.65625
1.0 1.125 0.125
1.65625 0.125 0.4306640625

0.875 1.0 1.75
1.0 1.125 0.125
1.75 0.125 0.5625

0.1875 0.0 0.0
0.0 0.1875 0.1875
0.0 0.1875 0.0

0.28125 0.0 0.09375
0.0 0.1875 0.1875
0.09375 0.1875 0.0087890625

0.375 0.0 0.1875
0.0 0.1875 0.1875
0.1875 0.1875 0.03515625

0.46875 0.0 0.28125
0.0 0.1875 0.1875
0.28125 0.1875 0.0791015625

0.5625 0.0 0.375
0.0 0.1875 0.1875
0.375 0.1875 0.140625

0.65625 0.0 0.46875
0.0 0.1875 0.1875
0.46875 0.1875 0.2197265625

0.75 0.0 0.5625
0.0 0.1875 0.1875
0.5625 0.1875 0.31640625

0.84375 0.0 0.65625
0.0 0.1875 0.1875
0.65625 0.1875 0.4306640625

0.9375 0.0 0.75
0.0 0.1875 0.1875
0.75 0.1875 0.5625

0.1875 0.015625 0.125
0.015625 0.3125 0.1875
0.125 0.1875 0.0

0.28125 0.015625 0.21875
0.015625 0.3125 0.1875
0.21875 0.1875 0.0087890625

0.375 0.015625 0.3125
0.015625 0.3125 0.1875
0.3125 0.1875 0.03515625

0.46875 0.015625 0.40625
0.015625 0.3125 0.1875
0.40625 0.1875 0.0791015625

0.5625 0.015625 0.5
0.015625 0.3125 0.1875
0.5 0.1875 0.140625

0.65625 0.015625 0.59375
0.015625 0.3125 0.1875
0.59375 0.1875 0.2197265625

0.75 0.015625 0.6875
0.015625 0.3125 0.1875
0.6875 0.1875 0.31640625

0.84375 0.015625 0.78125
0.015625 0.3125 0.1875
0.78125 0.1875 0.4306640625

0.9375 0.015625 0.875
0.015625 0.3125 0.1875
0.875 0.1875 0.5625

0.1875 0.0625 0.25
0.0625 0.4375 0.1875
0.25 0.1875 0.0

0.28125 0.0625 0.34375
0.0625 0.4375 0.1875
0.34375 0.1875 0.0087890625

0.375 0.0625 0.4375
0.0625 0.4375 0.1875
0.4375 0.1875 0.03515625

0.46875 0.0625 0.53125
0.0625 0.4375 0.1875
0.53125 0.1875 0.0791015625

0.5625 0.0625 0.625
0.0625 0.4375 0.1875
0.625 0.1875 0.140625

0.65625 0.0625 0.71875
0.0625 0.4375 0.1875
0.71875 0.1875 0.2197265625

0.75 0.0625 0.8125
0.0625 0.4375 0.1875
0.8125 0.1875 0.31640625

0.84375 0.0625 0.90625
0.0625 0.4375 0.1875
0.90625 0.1875 0.4306640625

0.9375 0.0625 1.0
0.0625 0.4375 0.1875
1.0 0.1875 0.5625

0.1875 0.140625 0.375
0.140625 0.5625 0.1875
0.375 0.1875 0.0

0.28125 0.140625 0.46875
0.140625 0.5625 0.1875
0.46875 0.1875 0.0087890625

0.375 0.140625 0.5625
0.140625 0.5625 0.1875
0.5625 0.1875 0.03515625

0.46875 0.140625 0.65625
0.140625 0.5625 0.1875
0.65625 0.1875 0.0791015625

0.5625 0.140625 0.75
0.140625 0.5625 0.1875
0.75 0.1875 0.140625

0.65625 0.140625 0.84375
0.140625 0.5625 0.1875
0.84375 0.1875 0.2197265625

0.75 0.140625 0.9375
0.140625 0.5625 0.1875
0.9375 0.1875 0.31640625

0.84375 0.140625 1.03125
0.140625 0.5625 0.1875
1.03125 0.1875 0.4306640625

0.9375 0.140625 1.125
0.140625 0.5625 0.1875
1.125 0.1875 0.5625

0.1875 0.25 0.5
0.25 0.6875 0.1875
0.5 0.1875 0.0

0.28125 0.25 0.59375
0.25 0.6875 0.1875
0.59375 0.1875 0.0087890625

0.375 0.25 0.6875
0.25 0.6875 0.1875
0.6875 0.1875 0.03515625

0.46875 0.25 0.78125
0.25 0.6875 0.1875
0.78125 0.1875 0.0791015625

0.5625 0.25 0.875
0.25 0.6875 0.1875
0.875 0.1875 0.140625

0.65625 0.25 0.96875
0.25 0.6875 0.1875
0.96875 0.1875 0.2197265625

0.75 0.25 1.0625
0.25 0.6875 0.1875
1.0625 0.1875 0.31640625

0.84375 0.25 1.15625
0.25 0.6875 0.1875
1.15625 0.1875 0.4306640625

0.9375 0.25 1.25
0.25 0.6875 0.1875
1.25 0.1875 0.5625

0.1875 0.390625 0.625
0.390625 0.8125 0.1875
0.625 0.1875 0.0

0.28125 0.390625 0.71875
0.390625 0.8125 0.1875
0.71875 0.1875 0.0087890625

0.375 0.390625 0.8125
0.390625 0.8125 0.1875
0.8125 0.1875 0.03515625

0.46875 0.390625 0.90625
0.390625 0.8125 0.1875
0.90625 0.1875 0.0791015625

0.5625 0.390625 1.0
0.390625 0.8125 0.1875
1.0 0.1875 0.140625

0.65625 0.390625 1.09375
0.390625 0.8125 0.1875
1.09375 0.1875 0.2197265625

0.75 0.390625 1.1875
0.390625 0.8125 0.1875
1.1875 0.1875 0.31640625

0.84375 0.390625 1.28125
0.390625 0.8125 0.1875
1.28125 0.1875 0.4306640625

0.9375 0.390625 1.375
0.390625 0.8125 0.1875
1.375 0.1875 0.5625

0.1875 0.5625 0.75
0.5625 0.9375 0.1875
0.75 0.1875 0.0

0.28125 0.5625 0.84375
0.5625 0.9375 0.1875
0.84375 0.1875 0.0087890625

0.375 0.5625 0.9375
0.5625 0.9375 0.1875
0.9375 0.1875 0.03515625

0.46875 0.5625 1.03125
0.5625 0.9375 0.1875
1.03125 0.1875 0.0791015625

0.5625 0.5625 1.125
0.5625 0.9375 0.1875
1.125 0.1875 0.140625

0.65625 0.5625 1.21875
0.5625 0.9375 0.1875
1.21875 0.1875 0.2197265625

0.75 0.5625 1.3125
0.5625 0.9375 0.1875
1.3125 0.1875 0.31640625

0.84375 0.5625 1.40625
0.5625 0.9375 0.1875
1.40625 0.1875 0.4306640625

0.9375 0.5625 1.5
0.5625 0.9375 0.1875
1.5 0.1875 0.5625

0.1875 0.765625 0.875
0.765625 1.0625 0.1875
0.875 0.1875 0.0

0.28125 0.765625 0.96875
0.765625 1.0625 0.1875
0.96875 0.1875 0.0087890625

0.375 0.765625 1.0625
0.765625 1.0625 0.1875
1.0625 0.1875 0.03515625

0.46875 0.765625 1.15625
0.765625 1.0625 0.1875
1.15625 0.1875 0.0791015625

0.5625 0.765625 1.25
0.765625 1.0625 0.1875